<UPF version="2.0.1">
   <PP_INFO>
         UPF file from ATOMPAW code with following input
           Er  68
           GGA-PBE  loggrid 700 scalarrelativistic logderivrange -8 8 500
           6 5 5 4 0
           5 2 1
           4 3 11
           0 0 0
           c
           c
           c
           c
           v
           v
           c
           c
           c
           v
           c
           c
           v
           v
           3
           2.375 1.979 2.375 2.375
           n
           y
           2.0
           n
           y
           2.0
           n
           y
           2.0
           n
           VANDERBILT BESSELSHAPE
           4 0.0
           2.335
           2.335
           2.335
           2.335
           2.335
           2.335
           2.335
           2.335
  </PP_INFO>
  <!--                               -->
  <!-- END OF HUMAN READABLE SECTION -->
  <PP_HEADER generated="Generated using ATOMPAW code"
             author="   "
             date=" 08/04/2014, 14:50:45.643"
             element="Er"
             pseudo_type="PAW"
             relativistic="scalar"
             is_ultrasoft="T"
             is_paw="T"
             is_coulomb="F"
             has_so="F"
             has_wfc="T"
             has_gipaw="T"
             paw_as_gipaw="T"
             core_correction="T"
             functional="SLA PW PBX PBC"
             z_valence="22.000"
             l_max="3"
             l_max_rho="6"
             mesh_size="   699"
             number_of_wfc="     8"
             number_of_proj=" 8"
                                    /> 
<PP_MESH dx=" 1.2500000000000E-02" mesh="  1114" xmin="-7.0000000000000E+00" zmesh=" 6.7000000000000E+01">
 <PP_R type="real" size="  1114" columns="3">
  1.36101785903659134E-05  1.37813735622242133E-05  1.39547219017400316E-05
  1.41302506949440895E-05  1.43079873685674612E-05  1.44879596943269985E-05
  1.46701957932647563E-05  1.48547241401419595E-05  1.50415735678882162E-05
  1.52307732721067841E-05  1.54223528156363720E-05  1.56163421331704249E-05
  1.58127715359344792E-05  1.60116717164223423E-05  1.62130737531919070E-05
  1.64170091157211671E-05  1.66235096693254203E-05  1.68326076801363040E-05
  1.70443358201433963E-05  1.72587271722993680E-05  1.74758152356891713E-05
  1.76956339307643707E-05  1.79182176046432958E-05  1.81436010364778326E-05
  1.83718194428877761E-05  1.86029084834634242E-05  1.88369042663375300E-05
  1.90738433538272287E-05  1.93137627681469840E-05  1.95566999971934329E-05
  1.98026930004028592E-05  2.00517802146824913E-05  2.03040005604163280E-05
  2.05593934475465231E-05  2.08179987817313258E-05  2.10798569705803234E-05
  2.13450089299682758E-05  2.16134960904282936E-05  2.18853604036254188E-05
  2.21606443489117424E-05  2.24393909399637677E-05  2.27216437315034575E-05
  2.30074468261037340E-05  2.32968448810795863E-05  2.35898831154659248E-05
  2.38866073170830485E-05  2.41870638496911464E-05  2.44912996602347159E-05
  2.47993622861781191E-05  2.51112998629334516E-05  2.54271611313817010E-05
  2.57469954454886902E-05  2.60708527800167102E-05  2.63987837383331436E-05
  2.67308395603174598E-05  2.70670721303673903E-05  2.74075339855060748E-05
  2.77522783235910601E-05  2.81013590116265262E-05  2.84548305941802457E-05
  2.88127483019061076E-05  2.91751680601741360E-05  2.95421464978089055E-05
  2.99137409559378950E-05  3.02900094969512530E-05  3.06710109135740114E-05
  3.10568047380526801E-05  3.14474512514572270E-05  3.18430114931001184E-05
  3.22435472700739471E-05  3.26491211669087330E-05  3.30597965553509996E-05
  3.34756376042657250E-05  3.38967092896627926E-05  3.43230774048497924E-05
  3.47548085707121481E-05  3.51919702461228810E-05  3.56346307384831828E-05
  3.60828592143955731E-05  3.65367257104713889E-05  3.69963011442740102E-05
  3.74616573253999750E-05  3.79328669666993812E-05  3.84100036956373155E-05
  3.88931420657984852E-05  3.93823575685361442E-05  3.98777266447679208E-05
  4.03793266969198025E-05  4.08872361010204245E-05  4.14015342189475878E-05
  4.19223014108285498E-05  4.24496190475965292E-05  4.29835695237051177E-05
  4.35242362700025034E-05  4.40717037667678630E-05  4.46260575569113474E-05
  4.51873842593405260E-05  4.57557715824946718E-05  4.63313083380493821E-05
  4.69140844547937360E-05  4.75041909926815950E-05  4.81017201570600969E-05
  4.87067653130768386E-05  4.93194210002683857E-05  4.99397829473324190E-05
  5.05679480870852450E-05  5.12040145716079784E-05  5.18480817875828867E-05
  5.25002503718228111E-05  5.31606222269959673E-05  5.38293005375482195E-05
  5.45063897858260216E-05  5.51919957684019732E-05  5.58862256126056782E-05
  5.65891877932628024E-05  5.73009921496442305E-05  5.80217499026288098E-05
  5.87515736720818372E-05  5.94905774944520945E-05  6.02388768405904261E-05
  6.09965886337920354E-05  6.17638312680662203E-05  6.25407246266355179E-05
  6.33273901006677640E-05  6.41239506082438778E-05  6.49305306135637244E-05
  6.57472561463941268E-05  6.65742548217612159E-05  6.74116558598905353E-05
  6.82595901063981112E-05  6.91181900527350086E-05  6.99875898568897109E-05
  7.08679253643504104E-05  7.17593341293311252E-05  7.26619554362651260E-05
  7.35759303215679372E-05  7.45014015956748841E-05  7.54385138653554372E-05
  7.63874135563082297E-05  7.73482489360406640E-05  7.83211701370355883E-05
  7.93063291802100840E-05  8.03038799986689663E-05  8.13139784617570915E-05
  8.23367823994144949E-05  8.33724516268373011E-05  8.44211479694493666E-05
  8.54830352881878394E-05  8.65582795051065938E-05  8.76470486293022685E-05
  8.87495127831655796E-05  8.98658442289635594E-05  9.09962173957557831E-05
  9.21408089066492732E-05  9.32997976063964325E-05  9.44733645893395011E-05
  9.56616932277072168E-05  9.68649692002669714E-05  9.80833805213375055E-05
  9.93171175701667756E-05  1.00566373120678613E-04  1.01831342371594435E-04
  1.03112222976933316E-04  1.04409215076895688E-04  1.05722521329136194E-04
  1.07052346940428336E-04  1.08398899698729730E-04  1.09762390005648298E-04
  1.11143030909318483E-04  1.12541038137690684E-04  1.13956630132238236E-04
  1.15390028082090599E-04  1.16841455958593637E-04  1.18311140550305890E-04
  1.19799311498435237E-04  1.21306201332719573E-04  1.22832045507761641E-04
  1.24377082439818053E-04  1.25941553544052683E-04  1.27525703272258893E-04
  1.29129779151054239E-04  1.30754031820558628E-04  1.32398715073556102E-04
  1.34064085895150973E-04  1.35750404502922741E-04  1.37457934387584188E-04
  1.39186942354154120E-04  1.40937698563644941E-04  1.42710476575276198E-04
  1.44505553389219282E-04  1.46323209489878015E-04  1.48163728889716580E-04
  1.50027399173635612E-04  1.51914511543908479E-04  1.53825360865682834E-04
  1.55760245713052294E-04  1.57719468415711261E-04  1.59703335106192956E-04
  1.61712155767703748E-04  1.63746244282559527E-04  1.65805918481228454E-04
  1.67891500191995010E-04  1.70003315291244425E-04  1.72141693754382423E-04
  1.74306969707394807E-04  1.76499481479053992E-04  1.78719571653785406E-04
  1.80967587125195498E-04  1.83243879150275156E-04  1.85548803404284973E-04
  1.87882720036328333E-04  1.90245993725627873E-04  1.92638993738505568E-04
  1.95062093986081799E-04  1.97515673082700600E-04  2.00000114405086976E-04
  2.02515806152252735E-04  2.05063141406151394E-04  2.07642518193098798E-04
  2.10254339545966210E-04  2.12899013567153080E-04  2.15576953492356397E-04
  2.18288577755137644E-04  2.21034310052304467E-04  2.23814579410115178E-04
  2.26629820251312620E-04  2.29480472463006467E-04  2.32366981465404327E-04
  2.35289798281410230E-04  2.38249379607098849E-04  2.41246187883072761E-04
  2.44280691366722809E-04  2.47353364205391880E-04  2.50464686510462077E-04
  2.53615144432374376E-04  2.56805230236587803E-04  2.60035442380500219E-04
  2.63306285591330793E-04  2.66618270944985565E-04  2.69971915945915123E-04
  2.73367744607972828E-04  2.76806287536296794E-04  2.80288082010215090E-04
  2.83813672067197847E-04  2.87383608587864616E-04  2.90998449382059608E-04
  2.94658759276011635E-04  2.98365110200588489E-04  3.02118081280662576E-04
  3.05918258925600870E-04  3.09766236920891653E-04  3.13662616520925816E-04
  3.17608006542942931E-04  3.21603023462160766E-04  3.25648291508101075E-04
  3.29744442762126041E-04  3.33892117256202978E-04  3.38091963072910048E-04
  3.42344636446700477E-04  3.46650801866441407E-04  3.51011132179240403E-04
  3.55426308695580269E-04  3.59897021295774253E-04  3.64423968537761715E-04
  3.69007857766259686E-04  3.73649405223285794E-04  3.78349336160073782E-04
  3.83108384950394537E-04  3.87927295205303712E-04  3.92806819889333068E-04
  3.97747721438141593E-04  4.02750771877649042E-04  4.07816752944665194E-04
  4.12946456209038455E-04  4.18140683197340611E-04  4.23400245518106000E-04
  4.28725964988648260E-04  4.34118673763469814E-04  4.39579214464287909E-04
  4.45108440311697145E-04  4.50707215258485088E-04  4.56376414124628289E-04
  4.62116922733983452E-04  4.67929638052699826E-04  4.73815468329372451E-04
  4.79775333236956252E-04  4.85810164016469120E-04  4.91920903622497974E-04
  4.98108506870538524E-04  5.04373940586187405E-04  5.10718183756209425E-04
  5.17142227681507819E-04  5.23647076132015537E-04  5.30233745503536796E-04
  5.36903264976562209E-04  5.43656676677078086E-04  5.50495035839403189E-04
  5.57419410971068995E-04  5.64430884019777399E-04  5.71530550542457649E-04
  5.78719519876447880E-04  5.85998915312833132E-04  5.93369874271960007E-04
  6.00833548481161908E-04  6.08391104154719798E-04  6.16043722176082861E-04
  6.23792598282386815E-04  6.31638943251288288E-04  6.39583983090152028E-04
  6.47628959227617503E-04  6.55775128707573396E-04  6.64023764385574932E-04
  6.72376155127728725E-04  6.80833606012080732E-04  6.89397438532539180E-04
  6.98068990805357937E-04  7.06849617778222846E-04  7.15740691441962254E-04
  7.24743601044925008E-04  7.33859753310053451E-04  7.43090572654685785E-04
  7.52437501413125002E-04  7.61902000062006238E-04  7.71485547448498674E-04
  7.81189641021378832E-04  7.91015797065011922E-04  8.00965550936270725E-04
  8.11040457304440152E-04  8.21242090394138161E-04  8.31572044231289461E-04
  8.42031932892199284E-04  8.52623390755750618E-04  8.63348072758783375E-04
  8.74207654654679967E-04  8.85203833275204793E-04  8.96338326795641000E-04
  9.07612875003253362E-04  9.19029239569137883E-04  9.30589204323484459E-04
  9.42294575534304121E-04  9.54147182189665180E-04  9.66148876283470922E-04
  9.78301533104841302E-04  9.90607051531128876E-04  1.00306735432462331E-03
  1.01568438843298802E-03  1.02846012529347148E-03  1.04139656114095032E-03
  1.05449571731984514E-03  1.06775964059995843E-03  1.08119040349629030E-03
  1.09479010459286757E-03  1.10856086887065530E-03  1.12250484803958850E-03
  1.13662422087478106E-03  1.15092119355696587E-03  1.16539800001721149E-03
  1.18005690228598038E-03  1.19490019084657578E-03  1.20993018499303338E-03
  1.22514923319251936E-03  1.24055971345227709E-03  1.25616403369119994E-03
  1.27196463211607280E-03  1.28796397760254475E-03  1.30416457008090134E-03
  1.32056894092667625E-03  1.33717965335618965E-03  1.35399930282705297E-03
  1.37103051744371491E-03  1.38827595836811188E-03  1.40573832023547303E-03
  1.42342033157536797E-03  1.44132475523804280E-03  1.45945438882612018E-03
  1.47781206513173573E-03  1.49640065257916036E-03  1.51522305567300137E-03
  1.53428221545203630E-03  1.55358110994875589E-03  1.57312275465469153E-03
  1.59291020299158525E-03  1.61294654678849716E-03  1.63323491676491020E-03
  1.65377848301990994E-03  1.67458045552751843E-03  1.69564408463826520E-03
  1.71697266158705119E-03  1.73856951900741813E-03  1.76043803145227722E-03
  1.78258161592118828E-03  1.80500373239427902E-03  1.82770788437286490E-03
  1.85069761942688489E-03  1.87397652974921375E-03  1.89754825271694913E-03
  1.92141647145976468E-03  1.94558491543539848E-03  1.97005736101239217E-03
  1.99483763206015699E-03  2.01992960054645822E-03  2.04533718714242519E-03
  2.07106436183515348E-03  2.09711514454803249E-03  2.12349360576886059E-03
  2.15020386718586982E-03  2.17725010233175238E-03  2.20463653723577393E-03
  2.23236745108410612E-03  2.26044717688845794E-03  2.28888010216311139E-03
  2.31767066961049290E-03  2.34682337781533809E-03  2.37634278194761694E-03
  2.40623349447428164E-03  2.43650018587997621E-03  2.46714758539681419E-03
  2.49818048174332190E-03  2.52960372387268928E-03  2.56142222173043072E-03
  2.59364094702156916E-03  2.62626493398748512E-03  2.65929928019251497E-03
  2.69274914732046044E-03  2.72661976198111623E-03  2.76091641652692968E-03
  2.79564446987995603E-03  2.83080934836918386E-03  2.86641654657842108E-03
  2.90247162820483082E-03  2.93898022692826947E-03  2.97594804729156993E-03
  3.01338086559187245E-03  3.05128453078319564E-03  3.08966496539033993E-03
  3.12852816643429581E-03  3.16788020636929978E-03  3.20772723403165176E-03
  3.24807547560049259E-03  3.28893123557065644E-03  3.33030089773775828E-03
  3.37219092619568499E-03  3.41460786634660476E-03  3.45755834592371492E-03
  3.50104907602683327E-03  3.54508685217101716E-03  3.58967855534839076E-03
  3.63483115310329549E-03  3.68055170062099417E-03  3.72684734183005573E-03
  3.77372531051860379E-03  3.82119293146462825E-03  3.86925762158047207E-03
  3.91792689107175237E-03  3.96720834461084752E-03  4.01710968252513238E-03
  4.06763870200018904E-03  4.11880329829810744E-03  4.17061146599115567E-03
  4.22307130021094129E-03  4.27619099791328502E-03  4.32997885915903553E-03
  4.38444328841093925E-03  4.43959279584687627E-03  4.49543599868958664E-03
  4.55198162255312372E-03  4.60923850280626698E-03  4.66721558595304276E-03
  4.72592193103064766E-03  4.78536671102493868E-03  4.84555921430372769E-03
  4.90650884606812221E-03  4.96822512982208423E-03  5.03071770886051508E-03
  5.09399634777602927E-03  5.15807093398469411E-03  5.22295147927097705E-03
  5.28864812135207245E-03  5.35517112546196692E-03  5.42253088595539504E-03
  5.49073792793197506E-03  5.55980290888079178E-03  5.62973662034562793E-03
  5.70054998961118040E-03  5.77225408141047048E-03  5.84486009965371617E-03
  5.91837938917899944E-03  5.99282343752487699E-03  6.06820387672536276E-03
  6.14453248512744458E-03  6.22182118923146881E-03  6.30008206555470948E-03
  6.37932734251831033E-03  6.45956940235802284E-03  6.54082078305894855E-03
  6.62309418031462472E-03  6.70640244951077168E-03  6.79075860773393613E-03
  6.87617583580546390E-03  6.96266748034102528E-03  7.05024705583603972E-03
  7.13892824677737469E-03  7.22872490978153197E-03  7.31965107575979681E-03
  7.41172095211059534E-03  7.50494892493941673E-03  7.59934956130670601E-03
  7.69493761150394449E-03  7.79172801135845361E-03  7.88973588456712976E-03
  7.98897654505955658E-03  8.08946549939085387E-03  8.19121844916457544E-03
  8.29425129348614412E-03  8.39858013144710591E-03  8.50422126464064204E-03
  8.61119119970875715E-03  8.71950665092143321E-03  8.82918454278829035E-03
  8.94024201270307052E-03  9.05269641362139478E-03  9.16656531677220721E-03
  9.28186651440328879E-03  9.39861802256134783E-03  9.51683808390707195E-03
  9.63654517056555283E-03  9.75775798701264754E-03  9.88049547299752612E-03
  1.00047768065020838E-02  1.01306214067375354E-02  1.02580489371786893E-02
  1.03870793086364502E-02  1.05177326823688612E-02  1.06500294732313865E-02
  1.07839903528667569E-02  1.09196362529349524E-02  1.10569883683838497E-02
  1.11960681607609271E-02  1.13368973615667005E-02  1.14794979756503140E-02
  1.16238922846478333E-02  1.17701028504638323E-02  1.19181525187966753E-02
  1.20680644227082520E-02  1.22198619862385442E-02  1.23735689280656778E-02
  1.25292092652120515E-02  1.26868073167969928E-02  1.28463877078366911E-02
  1.30079753730919182E-02  1.31715955609641115E-02  1.33372738374405338E-02
  1.35050360900889534E-02  1.36749085321026583E-02  1.38469177063963219E-02
  1.40210904897533697E-02  1.41974540970255837E-02  1.43760360853854054E-02
  1.45568643586318387E-02  1.47399671715504801E-02  1.49253731343283579E-02
  1.51131112170243970E-02  1.53032107540959604E-02  1.54957014489824716E-02
  1.56906133787466373E-02  1.58879769987740199E-02  1.60878231475318177E-02
  1.62901830513873420E-02  1.64950883294872862E-02  1.67025709986982282E-02
  1.69126634786093480E-02  1.71253985965980973E-02  1.73408095929594545E-02
  1.75589301260998670E-02  1.77797942777964020E-02  1.80034365585221012E-02
  1.82298919128383585E-02  1.84591957248550036E-02  1.86913838237591813E-02
  1.89264924894137349E-02  1.91645584580259903E-02  1.94056189278879292E-02
  1.96497115651883894E-02  1.98968745098985593E-02  2.01471463817314046E-02
  2.04005662861760639E-02  2.06571738206082350E-02  2.09170090804772224E-02
  2.11801126655710159E-02  2.14465256863600809E-02  2.17162897704209143E-02
  2.19894470689405326E-02  2.22660402633025507E-02  2.25461125717563195E-02
  2.28297077561698467E-02  2.31168701288676573E-02  2.34076445595547619E-02
  2.37020764823275207E-02  2.40002119027728916E-02  2.43020974051568819E-02
  2.46077801597034060E-02  2.49173079299648235E-02  2.52307290802849526E-02
  2.55480925833561981E-02  2.58694480278715867E-02  2.61948456262731111E-02
  2.65243362225975922E-02  2.68579713004210331E-02  2.71958029909031354E-02
  2.75378840809328528E-02  2.78842680213764529E-02  2.82350089354294065E-02
  2.85901616270730838E-02  2.89497815896381343E-02  2.93139250144753491E-02
  2.96826487997357003E-02  3.00560105592608505E-02  3.04340686315853100E-02
  3.08168820890520542E-02  3.12045107470426408E-02  3.15970151733235075E-02
  3.19944566975098460E-02  3.23968974206484059E-02  3.28044002249209404E-02
  3.32170287834696876E-02  3.36348475703463975E-02  3.40579218705866285E-02
  3.44863177904105173E-02  3.49201022675521208E-02  3.53593430817185292E-02
  3.58041088651805672E-02  3.62544691134968483E-02  3.67104941963724007E-02
  3.71722553686542126E-02  3.76398247814649228E-02  3.81132754934765186E-02
  3.85926814823260717E-02  3.90781176561746518E-02  3.95696598654120546E-02
  4.00673849145085428E-02  4.05713705740156014E-02  4.10816955927180150E-02
  4.15984397099380815E-02  4.21216836679955131E-02  4.26515092248233654E-02
  4.31879991667427007E-02  4.37312373213985806E-02  4.42813085708577414E-02
  4.48382988648721170E-02  4.54022952343084429E-02  4.59733858047467331E-02
  4.65516598102506743E-02  4.71372076073099874E-02  4.77301206889593210E-02
  4.83304916990740796E-02  4.89384144468458723E-02  4.95539839214410652E-02
  5.01772963068422423E-02  5.08084489968778780E-02  5.14475406104399555E-02
  5.20946710068931548E-02  5.27499413016787044E-02  5.34134538821131391E-02
  5.40853124233871760E-02  5.47656219047648746E-02  5.54544886259866268E-02
  5.61520202238793217E-02  5.68583256891740663E-02  5.75735153835369093E-02
  5.82977010568127563E-02  5.90309958644862284E-02  5.97735143853631232E-02
  6.05253726394727812E-02  6.12866881061971819E-02  6.20575797426270240E-02
  6.28381680021486561E-02  6.36285748532660067E-02  6.44289237986573754E-02
  6.52393398944739744E-02  6.60599497698796667E-02  6.68908816468367778E-02
  6.77322653601419022E-02  6.85842323777117874E-02  6.94469158211264009E-02
  7.03204504864290286E-02  7.12049728651880931E-02  7.21006211658251212E-02
  7.30075353352090534E-02  7.39258570805240711E-02  7.48557298914113850E-02
  7.57972990623892728E-02  7.67507117155565854E-02  7.77161168235798588E-02
  7.86936652329714853E-02  7.96835096876594012E-02  8.06858048528532323E-02
  8.17007073392120170E-02  8.27283757273137854E-02  8.37689705924351408E-02
  8.48226545296410089E-02  8.58895921791900108E-02  8.69699502522608831E-02
  8.80638975570002674E-02  8.91716050249003189E-02  9.02932457375067166E-02
  9.14289949534624891E-02  9.25790301358936085E-02  9.37435309801368105E-02
  9.49226794418183417E-02  9.61166597652845373E-02  9.73256585123897372E-02
  9.85498645916482729E-02  9.97894692877503292E-02  1.01044666291451840E-01
  1.02315651729838544E-01  1.03602624196970680E-01  1.04905784784914941E-01
  1.06225337115164131E-01  1.07561487370454706E-01  1.08914444326982635E-01
  1.10284419387024629E-01  1.11671626611971428E-01  1.13076282755773860E-01
  1.14498607298812352E-01  1.15938822482190715E-01  1.17397153342461077E-01
  1.18873827746787772E-01  1.20369076428550367E-01  1.21883133023397705E-01
  1.23416234105753350E-01  1.24968619225780078E-01  1.26540530946811669E-01
  1.28132214883252188E-01  1.29743919738955243E-01  1.31375897346083764E-01
  1.33028402704458759E-01  1.34701694021404944E-01  1.36396032752094443E-01
  1.38111683640401328E-01  1.39848914760267701E-01  1.41607997557589932E-01
  1.43389206892634513E-01  1.45192821082983398E-01  1.47019121947023601E-01
  1.48868394847981006E-01  1.50740928738508251E-01  1.52637016205835974E-01
  1.54556953517487994E-01  1.56501040667575669E-01  1.58469581423671790E-01
  1.60462883374273946E-01  1.62481257976867882E-01  1.64525020606591105E-01
  1.66594490605512902E-01  1.68689991332531181E-01  1.70811850213897332E-01
  1.72960398794379133E-01  1.75135972789062899E-01  1.77338912135811877E-01
  1.79569561048381177E-01  1.81828268070201082E-01  1.84115386128839792E-01
  1.86431272591146474E-01  1.88776289319092877E-01  1.91150802726314045E-01
  1.93555183835360189E-01  1.95989808335672089E-01  1.98455056642280414E-01
  2.00951313955249400E-01  2.03478970319862146E-01  2.06038420687568585E-01
  2.08630064977696233E-01  2.11254308139937425E-01  2.13911560217626112E-01
  2.16602236411804844E-01  2.19326757146103613E-01  2.22085548132430588E-01
  2.24879040437489436E-01  2.27707670550137020E-01  2.30571880449582489E-01
  2.33472117674450308E-01  2.36408835392707933E-01  2.39382492472472785E-01
  2.42393553553714308E-01  2.45442489120851676E-01  2.48529775576270817E-01
  2.51655895314761902E-01  2.54821336798893461E-01  2.58026594635338280E-01
  2.61272169652153607E-01  2.64558568977039443E-01  2.67886306116576989E-01
  2.71255901036463687E-01  2.74667880242762286E-01  2.78122776864164423E-01
  2.81621130735296765E-01  2.85163488481069649E-01  2.88750403602086814E-01
  2.92382436561134607E-01  2.96060154870751213E-01  2.99784133181905499E-01
  3.03554953373785463E-01  3.07373204644716957E-01  3.11239483604230371E-01
  3.15154394366278012E-01  3.19118548643631983E-01  3.23132565843463837E-01
  3.27197073164126440E-01  3.31312705693159182E-01  3.35480106506516773E-01
  3.39699926769055693E-01  3.43972825836277640E-01  3.48299471357354062E-01
  3.52680539379451485E-01  3.57116714453360462E-01  3.61608689740462397E-01
  3.66157167121035410E-01  3.70762857303923110E-01  3.75426479937588042E-01
  3.80148763722553684E-01  3.84930446525269587E-01  3.89772275493402875E-01
  3.94675007172579140E-01  3.99639407624599374E-01  4.04666252547132954E-01
  4.09756327394926845E-01  4.14910427502532708E-01  4.20129358208576942E-01
  4.25413934981601738E-01  4.30764983547478109E-01  4.36183340018431953E-01
  4.41669851023686277E-01  4.47225373841746654E-01  4.52850776534357624E-01
  4.58546938082133371E-01  4.64314748521905407E-01  4.70155109085790557E-01
  4.76068932342007478E-01  4.82057142337473488E-01  4.88120674742181682E-01
  4.94260476995407649E-01  5.00477508453745723E-01  5.06772740541008293E-01
  5.13147156900018331E-01  5.19601753546299228E-01  5.26137539023709522E-01
  5.32755534562028510E-01  5.39456774236521386E-01  5.46242305129522987E-01
  5.53113187494038705E-01  5.60070494919417960E-01  5.67115314499101575E-01
  5.74248747000479676E-01  5.81471907036895885E-01  5.88785923241799347E-01
  5.96191938445103431E-01  6.03691109851752783E-01  6.11284609222534359E-01
  6.18973623057176292E-01  6.26759352779731493E-01  6.34643014926310145E-01
  6.42625841335163650E-01  6.50709079339156893E-01  6.58893991960675884E-01
  6.67181858108968018E-01  6.75573972779981546E-01  6.84071647258709170E-01
  6.92676209324074255E-01  7.01389003456408200E-01  7.10211391047517959E-01
  7.19144750613415207E-01  7.28190478009708375E-01  7.37349986649704303E-01
  7.46624707725265901E-01  7.56016090430427834E-01  7.65525602187846377E-01
  7.75154728878082011E-01  7.84904975071767930E-01  7.94777864264711864E-01
  8.04774939115933785E-01  8.14897761688719968E-01  8.25147913694693869E-01
  8.35526996740957539E-01  8.46036632580356329E-01  8.56678463364869192E-01
  8.67454151902208759E-01  8.78365381915633736E-01  8.89413858307029681E-01
  9.00601307423314235E-01  9.11929477326169802E-01  9.23400138065192277E-01
  9.35015081954461480E-01  9.46776123852587248E-01  9.58685101446297816E-01
  9.70743875537567358E-01  9.82954330334383508E-01  9.95318373745152418E-01
  1.00783793767680829E+00  1.02051497833668980E+00  1.03335147653818882E+00
  1.04634943801026647E+00  1.05951089371084972E+00  1.07283790014416525E+00
  1.08633253968208576E+00  1.09999692088949019E+00  1.11383317885374500E+00
  1.12784347551830866E+00  1.14203000002053567E+00  1.15639496903374583E+00
  1.17094062711356939E+00  1.18566924704867671E+00  1.20058313021590024E+00
  1.21568460693982305E+00  1.23097603685691226E+00  1.24645980928419808E+00
  1.26213834359262700E+00  1.27801408958508445E+00  1.29408952787917753E+00
  1.31036717029484961E+00  1.32684956024684064E+00  1.34353927314211652E+00
  1.36043891678227524E+00  1.37755113177101318E+00  1.39487859192674257E+00
  1.41242400470036045E+00  1.43019011159831155E+00  1.44817968861094681E+00
  1.46639554664626970E+00  1.48484053196916332E+00  1.50351752664610627E+00
  1.52242944899551769E+00  1.54157925404374407E+00  1.56096993398677952E+00
  1.58060451865782126E+00  1.60048607600066517E+00  1.62061771254909837E+00
  1.64100257391229265E+00  1.66164384526630382E+00  1.68254475185178110E+00
  1.70370855947789601E+00  1.72513857503265178E+00  1.74683814699958084E+00
  1.76881066598094527E+00  1.79105956522754561E+00  1.81358832117514868E+00
  1.83640045398770968E+00  1.85949952810739472E+00  1.88288915281152502E+00
  1.90657298277655274E+00  1.93055471864908901E+00  1.95483810762415811E+00
  1.97942694403069641E+00  2.00432506992441084E+00  2.02953637568813594E+00
  2.05506480063968233E+00  2.08091433364739054E+00  2.10708901375338797E+00
  2.13359293080468682E+00  2.16043022609225588E+00  2.18760509299807726E+00
  2.21512177765039686E+00  2.24298457958717901E+00  2.27119785242790462E+00
  2.29976600455386437E+00  2.32869349979694196E+00  2.35798485813712633E+00
  2.38764465640875656E+00  2.41767752901564714E+00  2.44808816865525358E+00
  2.47888132705188236E+00  2.51006181569918585E+00  2.54163450661195744E+00
  2.57360433308737813E+00  2.60597629047588741E+00  2.63875543696167858E+00
  2.67194689435308463E+00  2.70555584888285638E+00  2.73958755201850712E+00
  2.77404732128290021E+00  2.80894054108508184E+00  2.84427266356164177E+00
  2.88004920942860565E+00  2.91627576884404416E+00  2.95295800228157823E+00
  2.99010164141480361E+00  3.02771249001290865E+00  3.06579642484751291E+00
  3.10435939661090510E+00  3.14340743084589169E+00  3.18294662888725455E+00
  3.22298316881513580E+00  3.26352330642036081E+00  3.30457337618189806E+00
  3.34613979225667579E+00  3.38822904948176262E+00  3.43084772438923657E+00
  3.47400247623376535E+00  3.51770004803311354E+00  3.56194726762178915E+00
  3.60675104871786223E+00  3.65211839200328914E+00  3.69805638621776600E+00
  3.74457220926633738E+00  3.79167312934100398E+00  3.83936650605634266E+00
  3.88765979159950437E+00  3.93656053189461552E+00  3.98607636778182295E+00
  4.03621503621123878E+00  4.08698437145179927E+00  4.13839230631543220E+00
  4.19044687339656008E+00  4.24315620632717838E+00  4.29652854104781134E+00
  4.35057221709433062E+00  4.40529567890107909E+00  4.46070747712030702E+00
  4.51681626995820640E+00  4.57363082452782965E+00  4.63116001821890144E+00
  4.68941284008498815E+00  4.74839839224803040E+00  4.80812589132054491E+00
  4.86860466984579610E+00  4.92984417775595407E+00  4.99185398384873213E+00
  5.05464377728250103E+00  5.11822336909021480E+00  5.18260269371246363E+00
  5.24779181054968369E+00  5.31380090553401629E+00  5.38064029272086142E+00
  5.44832041590043126E+00  5.51685185022969016E+00  5.58624530388465956E+00
  5.65651161973366445E+00  5.72766177703152568E+00  5.79970689313505705E+00
  5.87265822524024550E+00  5.94652717214113391E+00  6.02132527601097145E+00
  6.09706422420567939E+00  6.17375585108998237E+00  6.25141213988663136E+00
  6.33004522454872465E+00  6.40966739165572985E+00  6.49029108233326291E+00
  6.57192889419699888E+00  6.65459358332115780E+00  6.73829806623157523E+00
  6.82305542192401404E+00  6.90887889390775456E+00  6.99578189227488068E+00
  7.08377799579571477E+00  7.17288095404043791E+00  7.26310468952757038E+00
  7.35446329989935510E+00  7.44697106012450760E+00  7.54064242472879798E+00
  7.63549203005349586E+00  7.73153469654241743E+00  7.82878543105761882E+00
  7.92725942922419602E+00  8.02697207780473754E+00  8.12793895710342440E+00
  8.23017584340057873E+00  8.33369871141770169E+00  8.43852373681350976E+00
  8.54466729871151998E+00  8.65214598225920106E+00  8.76097658121953415E+00
  8.87117610059504891E+00  8.98276175928480924E+00  9.09575099277504684E+00
  9.21016145586333757E+00  9.32601102541732629E+00  9.44331780316797165E+00
  9.56210011853792352E+00  9.68237653150565691E+00  9.80416583550536913E+00
  9.92748706036360851E+00  1.00523594752726790E+01  1.01788025918014249E+01
  1.03068361669440947E+01  1.04364802062072499E+01  1.05677549667358122E+01
  1.07006809604782074E+01  1.08352789573913633E+01  1.09715699886861771E+01
  1.11095753501135377E+01  1.12493166052919591E+01  1.13908155890768903E+01
  1.15340944109723864E+01  1.16791754585859184E+01  1.18260814011262987E+01
  1.19748351929459549E+01  1.21254600771275225E+01  1.22779795891155583E+01
  1.24324175603941605E+01  1.25887981222105001E+01  1.27471457093455456E+01
  1.29074850639319667E+01  1.30698412393200893E+01  1.32342396039926751E+01
  1.34007058455286323E+01  1.35692659746169006E+01  1.37399463291206114E+01
  1.39127735781923629E+01  1.40877747264414879E+01  1.42649771181533964E+01
  1.44444084415623379E+01  1.46260967331776754E+01  1.48100703821645716E+01
  1.49963581347800279E+01